{
    "abbr": {
        "lipf6": "21324-40-3",
        "lifsi": "171611-11-3",
        "litfsi": "90076-65-6",
        "libf4": "14283-07-9",
        "lipdi": "90076-67-8",
        "litdi": "90076-66-7",
        "ec": "96-49-1",
        "pc": "108-32-7",
        "dmc": "616-38-6",
        "emc": "623-53-0",
        "dec": "105-58-8",
        "dme": "110-71-4",
        "ea": "141-78-6",
        "ma": "79-20-9",
        "vc": "108-05-4"
    },
    "data": {
        "21324-40-3": {
            "name": "六氟磷酸锂",
            "abbreviation": "lipf6",
            "material_type": "Salt",
            "cas_registry_number": "21324-40-3",
            "description": "A white crystalline powder widely used as a conductive salt in lithium-ion battery electrolytes.",
            "molecular_structure": "[Li+].F[P-](F)(F)(F)(F)F",
            "density": 1.5,
            "melting_point": 200.0,
            "boiling_point": 0,
            "solubility": 1.0,
            "anion_size": 2.6,
            "dissociation_constant": 0.9,
            "thermal_stability": 80.0,
            "electrochemical_stability": 4.5
        },
        "171611-11-3": {
            "name": "二氟磺酰亚胺锂",
            "abbreviation": "lifsi",
            "material_type": "Salt",
            "cas_registry_number": "171611-11-3",
            "description": "A white solid with high solubility and stability, used in advanced lithium battery electrolytes.",
            "molecular_structure": "[Li+].[N-](S(=O)(=O)F)S(=O)(=O)F",
            "density": 1.8,
            "melting_point": 145.0,
            "boiling_point": 0,
            "solubility": 2.0,
            "anion_size": 2.9,
            "dissociation_constant": 0.95,
            "thermal_stability": 200.0,
            "electrochemical_stability": 5.0
        },
        "90076-65-6": {
            "name": "双三氟甲基磺酰亚胺锂",
            "abbreviation": "litfsi",
            "material_type": "Salt",
            "cas_registry_number": "90076-65-6",
            "description": "A white crystalline solid with excellent thermal and electrochemical stability, used in high-performance lithium battery electrolytes.",
            "molecular_structure": "[Li+].[N-](S(=O)(=O)C(F)(F)F)S(=O)(=O)C(F)(F)F",
            "density": 1.33,
            "melting_point": 234.0,
            "boiling_point": 0,
            "solubility": 1.5,
            "anion_size": 3.2,
            "dissociation_constant": 0.98,
            "thermal_stability": 300.0,
            "electrochemical_stability": 5.0
        },
        "14283-07-9": {
            "name": "四氟硼酸锂",
            "abbreviation": "libf4",
            "material_type": "Salt",
            "cas_registry_number": "14283-07-9",
            "description": "一种白色晶体盐，用于锂离子电池电解液，以高离子导电性和稳定性著称。",
            "molecular_structure": "[Li+].F[B-](F)(F)F",
            "density": 2.4,
            "melting_point": 293.0,
            "boiling_point": 0,
            "solubility": 1.2,
            "anion_size": 2.25,
            "dissociation_constant": 0.8,
            "thermal_stability": 300.0,
            "electrochemical_stability": 4.2
        },
        "90076-67-8": {
            "name": "二氟甲基磺酰亚胺锂",
            "abbreviation": "lipdi",
            "material_type": "Salt",
            "cas_registry_number": "90076-67-8",
            "description": "A white solid with high solubility and stability, used in advanced lithium battery electrolytes.",
            "molecular_structure": "[Li+].[N-](S(=O)(=O)C(F)F)S(=O)(=O)C(F)F",
            "density": 1.6,
            "melting_point": 150.0,
            "boiling_point": 0,
            "solubility": 1.5,
            "anion_size": 3.0,
            "dissociation_constant": 0.96,
            "thermal_stability": 200.0,
            "electrochemical_stability": 5.0
        },
        "90076-66-7": {
            "name": "三氟甲基磺酰亚胺锂",
            "abbreviation": "litdi",
            "material_type": "Salt",
            "cas_registry_number": "90076-66-7",
            "description": "A white solid with high solubility and stability, used in advanced lithium battery electrolytes.",
            "molecular_structure": "[Li+].[N-](S(=O)(=O)C(F)(F)F)S(=O)(=O)C(F)(F)F",
            "density": 1.6,
            "melting_point": 150.0,
            "boiling_point": 0,
            "solubility": 1.5,
            "anion_size": 3.0,
            "dissociation_constant": 0.96,
            "thermal_stability": 200.0,
            "electrochemical_stability": 5.0
        },
        "96-49-1": {
            "name": "碳酸乙烯酯",
            "abbreviation": "ec",
            "material_type": "Solvent",
            "cas_registry_number": "96-49-1",
            "description": "A colorless liquid with a faint odor.",
            "molecular_structure": "C1COC(=O)O1",
            "density": 1.3214,
            "melting_point": 36.4,
            "boiling_point": 248.0,
            "dielectric_constant": 89.6,
            "viscosity": 1.9,
            "dipole_moment": 4.9,
            "electrochemical_window": 4.5,
            "hydrogen_bonding": 0
        },
        "108-32-7": {
            "name": "碳酸丙烯酯",
            "abbreviation": "pc",
            "material_type": "Solvent",
            "cas_registry_number": "108-32-7",
            "description": "A colorless, odorless liquid used as a high-dielectric solvent in lithium-ion battery electrolytes.",
            "molecular_structure": "CC1COC(=O)O1",
            "density": 1.205,
            "melting_point": -48.8,
            "boiling_point": 242,
            "dielectric_constant": 64.92,
            "viscosity": 2.53,
            "dipole_moment": 4.81,
            "electrochemical_window": 4.5,
            "hydrogen_bonding": 0.5
        },
        "616-38-6": {
            "name": "碳酸二甲酯",
            "abbreviation": "dmc",
            "material_type": "Solvent",
            "cas_registry_number": "616-38-6",
            "description": "A colorless, flammable liquid with a mild ester-like odor, used as a low-viscosity solvent in electrolytes.",
            "molecular_structure": "COC(=O)OC",
            "density": 1.069,
            "melting_point": 4.6,
            "boiling_point": 90.0,
            "dielectric_constant": 3.107,
            "viscosity": 0.59,
            "dipole_moment": 0.91,
            "electrochemical_window": 4.5,
            "hydrogen_bonding": 0
        },
        "623-53-0": {
            "name": "碳酸甲乙酯",
            "abbreviation": "emc",
            "material_type": "Solvent",
            "cas_registry_number": "623-53-0",
            "description": "A colorless liquid with a low viscosity, commonly used to improve electrolyte conductivity.",
            "molecular_structure": "CCOC(=O)OC",
            "density": 1.006,
            "melting_point": -55.0,
            "boiling_point": 107.0,
            "dielectric_constant": 2.9,
            "viscosity": 0.65,
            "dipole_moment": 0.95,
            "electrochemical_window": 4.5,
            "hydrogen_bonding": 0
        },
        "105-58-8": {
            "name": "碳酸二乙酯",
            "abbreviation": "dec",
            "material_type": "Solvent",
            "cas_registry_number": "105-58-8",
            "description": "A colorless liquid with a mild odor, used as a low-viscosity solvent in battery electrolytes.",
            "molecular_structure": "CCOC(=O)OCC",
            "density": 0.975,
            "melting_point": -74.0,
            "boiling_point": 126.0,
            "dielectric_constant": 2.82,
            "viscosity": 0.75,
            "dipole_moment": 0.97,
            "electrochemical_window": 4.5,
            "hydrogen_bonding": 0
        },
        "110-71-4": {
            "name": "1,2-二甲氧基乙烷",
            "abbreviation": "dme",
            "material_type": "Solvent",
            "cas_registry_number": "110-71-4",
            "description": "无色液体，用作溶剂和有机合成。",
            "molecular_structure": "COCCO",
            "density": 0.869,
            "melting_point": -57.0,
            "boiling_point": 83.0,
            "dielectric_constant": 7.2,
            "viscosity": 0.46,
            "dipole_moment": 1.8,
            "electrochemical_window": 4.0,
            "hydrogen_bonding": 0.5
        },
        "141-78-6": {
            "name": "乙酸乙酯",
            "abbreviation": "ea",
            "material_type": "Solvent",
            "cas_registry_number": "141-78-6",
            "description": "无色液体，有甜味气味，用作涂料溶剂。",
            "molecular_structure": "CCC(=O)OC",
            "density": 0.902,
            "melting_point": -83.6,
            "boiling_point": 77.1,
            "dielectric_constant": 6.2,
            "viscosity": 0.45,
            "dipole_moment": 1.78,
            "electrochemical_window": 4.0,
            "hydrogen_bonding": 0.5
        },
        "79-20-9": {
            "name": "乙酸甲酯",
            "abbreviation": "ma",
            "material_type": "Solvent",
            "cas_registry_number": "79-20-9",
            "description": "无色液体，有果味气味，用作溶剂。",
            "molecular_structure": "CC(=O)OC",
            "density": 0.934,
            "melting_point": -98,
            "boiling_point": 56.9,
            "dielectric_constant": 6.68,
            "viscosity": 0.37,
            "dipole_moment": 1.70,
            "electrochemical_window": 4.0,
            "hydrogen_bonding": 0.5
        },
        "108-05-4": {
            "name": "乙烯基甲酸酯",
            "abbreviation": "vc",
            "material_type": "Solvent",
            "cas_registry_number": "108-05-4",
            "description": "A colorless liquid with a characteristic odor, used as a solvent and in polymerization reactions.",
            "molecular_structure": "C1=CC=C(C=C1)C(=O)O",
            "density": 0.99,
            "melting_point": -85.0,
            "boiling_point": 117.0,
            "dielectric_constant": 6.0,
            "viscosity": 0.5,
            "dipole_moment": 2.3,
            "electrochemical_window": 4.5,
            "hydrogen_bonding": 0
        }
    }
}
